  13
Step   9 (E-E0)    -23.5200534  kJ/mol
C          0.290021   1.006090   0.000810
C         -1.031438   0.583235  -0.000010
C         -1.034881  -0.847195  -0.000565
C          0.285609  -1.257678  -0.000072
N          1.072286  -0.127939   0.000758
H          2.084705  -0.130338   0.001257
H         -1.899328   1.240440  -0.000185
H          0.729399  -2.249628  -0.000241
C          0.881283   2.380578   0.001648
H         -1.905087  -1.500712  -0.001252
H          0.080970   3.134288   0.001451
H          1.512818   2.559806  -0.885954
H          1.511782   2.559172   0.890115
